26
mol_e_t1_opt.log	Energy: -386293.7245504
C         -1.00443        0.82111        1.20167
C         -1.02134        1.85401        2.19892
C          0.03349        2.64127        2.51853
C          1.40390        2.70232        2.01180
C          2.05559        1.99106        1.06104
C          1.47588        0.93168        0.28440
C         -1.99942       -0.08917        0.73945
C          0.14385        0.53491        0.45350
C          1.99942        0.08917       -0.73945
C         -1.47588       -0.93168       -0.28441
C         -0.14385       -0.53491       -0.45350
C          1.00443       -0.82111       -1.20167
C         -2.05560       -1.99106       -1.06104
C          1.02134       -1.85401       -2.19892
C         -1.40390       -2.70232       -2.01180
C         -0.03349       -2.64127       -2.51853
H          3.01360        0.13430       -1.11445
H          1.94678       -2.01974       -2.73977
H          0.15703       -3.37119       -3.29717
H         -1.99654       -3.46717       -2.50081
H          1.99654        3.46717        2.50081
H         -3.01360       -0.13430        1.11445
H          3.09384        2.24426        0.87563
H         -3.09384       -2.24426       -0.87563
H         -1.94678        2.01974        2.73977
H         -0.15703        3.37119        3.29717
