36
mol_f_t1_opt.log	Energy: -484209.7912678
C         -0.26068        2.21674        0.09688
C         -3.44951        0.95656       -0.30308
C         -0.41890        0.82388        0.02606
C         -4.83309        1.00705       -0.30636
C         -5.57736       -0.12854       -0.01372
C         -4.91989       -1.31596        0.28207
C         -3.53642       -1.36800        0.28673
C          4.40564       -2.59887       -0.11441
C          4.17632        2.26149        0.09958
C         -1.31761       -0.27023       -0.00516
C         -0.50832       -1.44740       -0.04698
C          0.87273       -1.12823       -0.04364
C          2.02952       -1.96718       -0.08141
C          3.32236       -1.54839       -0.06737
C          3.85943       -0.19210       -0.00897
C          3.29671        1.04496        0.04402
C          1.87912        1.27943        0.05053
C          0.92554        0.26421        0.00303
C          1.12902        2.48631        0.10974
C         -2.77202       -0.23203       -0.00620
H         -3.04180       -2.29680        0.53985
H         -6.65860       -0.08907       -0.01610
H          1.55463        3.47917        0.16192
H         -2.87859        1.84000       -0.55597
H          3.97225        2.91686       -0.75057
H          3.96993        2.83793        1.00459
H          5.23135        1.99689        0.08918
H          4.94574       -0.18593       -0.00705
H          1.85698       -3.03744       -0.12460
H         -0.89766       -2.45524       -0.09779
H         -1.02886        2.97123        0.14936
H          3.99170       -3.60413       -0.15632
H          5.04415       -2.45176       -0.98868
H          5.04796       -2.52648        0.76642
H         -5.48958       -2.20614        0.51631
H         -5.33451        1.93655       -0.54405
