16
mol_a_t1_opt.log	Energy: -385101.1085921
N         -0.00154       -0.00105        0.09767
N          2.27537       -0.58735        0.01160
N          0.58115       -2.27886        0.01095
N         -1.64533       -1.68048       -0.01509
N         -2.26300        0.63246       -0.04192
N         -0.63138        2.26147       -0.04130
N          1.68057        1.64010       -0.01381
C          1.35754        0.36098        0.02604
C          1.85267       -1.85820        0.02973
C         -0.36572       -1.35952        0.02539
C         -2.53470       -0.67900       -0.02174
C         -0.99400        0.99304       -0.00181
C          0.68051        2.53108       -0.02051
H          2.61652       -2.62328        0.03544
H          0.96124        3.57504       -0.03541
H         -3.57910       -0.95805       -0.03714
