23
mol_d_t1_opt.log	Energy: -424388.8172130
C          9.18113       -4.73984        0.29386
C          8.29705       -3.53605        0.29647
N          7.33943       -3.50655       -0.65415
C          6.53928       -2.44764       -0.67425
N          5.57939       -2.36825       -1.58863
C          4.80908       -1.27928       -1.55468
N          4.89659       -0.24859       -0.69436
C          5.84680       -0.31090        0.22236
C          6.03546        0.69656        1.16795
C          7.05069        0.63039        2.14827
C          7.87410       -0.49250        2.14369
C          7.72984       -1.52997        1.22084
N          8.51508       -2.60536        1.21422
N          6.69874       -1.43726        0.24298
N          3.83639       -1.19603       -2.47879
H          9.91552       -4.67604        1.09140
H          9.68316       -4.82217       -0.67135
H          8.57462       -5.63872        0.41434
H          5.35267        1.53173        1.10078
H          7.18030        1.41925        2.87031
H          8.67438       -0.62104        2.86006
H          3.72950       -1.94077       -3.14331
H          3.23206       -0.39522       -2.49049
