36
mol_f_s1_opt.log	Energy: -484209.4136050
C          0.24979        2.21235        0.14022
C          3.44513        0.97729       -0.28893
C          0.41755        0.81989        0.05655
C          4.82825        1.04251       -0.27941
C          5.58033       -0.07702        0.05214
C          4.93273       -1.26310        0.37351
C          3.54970       -1.32961        0.36508
C         -4.38049       -2.63927       -0.13956
C         -4.18838        2.22185        0.12034
C          1.32284       -0.26613        0.02169
C          0.52810       -1.44863       -0.03316
C         -0.85636       -1.14480       -0.03565
C         -2.00882       -1.99129       -0.08755
C         -3.30409       -1.58306       -0.07693
C         -3.85337       -0.22813       -0.00862
C         -3.30072        1.01152        0.05781
C         -1.88260        1.25435        0.07263
C         -0.92785        0.24801        0.02134
C         -1.13674        2.47109        0.14752
C          2.77851       -0.20994        0.03363
H          3.05977       -2.25507        0.63890
H          6.66109       -0.02611        0.05983
H         -1.56912        3.46054        0.20669
H          2.86732        1.84686       -0.57311
H         -3.99060        2.79154        1.03157
H         -3.98529        2.88649       -0.72285
H         -5.24150        1.95006        0.10255
H         -4.93968       -0.23089       -0.01154
H         -1.82887       -3.06010       -0.13944
H          0.93117       -2.45058       -0.09008
H          1.01521        2.96892        0.20448
H         -3.96012       -3.64162       -0.18827
H         -5.02863       -2.57923        0.73817
H         -5.01551       -2.48847       -1.01596
H          5.50936       -2.14019        0.63805
H          5.32292        1.97007       -0.53775
