23
mol_d_s1_opt.log	Energy: -424386.0132961
C          9.19179       -4.74207        0.29756
C          8.28537       -3.55706        0.27142
N          7.40196       -3.45144       -0.72578
C          6.56891       -2.43098       -0.73148
N          5.68303       -2.26922       -1.69448
C          4.87958       -1.20776       -1.63745
N          4.94403       -0.21097       -0.73012
C          5.81769       -0.33176        0.24294
C          5.99972        0.67060        1.20127
C          6.97361        0.54782        2.19257
C          7.80958       -0.55867        2.20553
C          7.66263       -1.59275        1.26307
N          8.46956       -2.62357        1.23404
N          6.58827       -1.50690        0.35205
N          3.95955       -1.06215       -2.63499
H         10.21849       -4.43638        0.08128
H          8.87462       -5.47220       -0.44179
H          9.19408       -5.19360        1.29039
H          5.36188        1.53822        1.11956
H          7.09975        1.33121        2.92603
H          8.61020       -0.67405        2.92133
H          3.75909       -1.87809       -3.18693
H          3.21784       -0.40249       -2.47848
